Program Version,EnergyPlus, Version 22.2.0-c249759bad, YMD=2023.03.15 15:33
1,5,Environment Title[],Latitude[deg],Longitude[deg],Time Zone[],Elevation[m]
2,8,Day of Simulation[],Month[],Day of Month[],DST Indicator[1=yes 0=no],Hour[],StartMinute[],EndMinute[],DayType
3,5,Cumulative Day of Simulation[],Month[],Day of Month[],DST Indicator[1=yes 0=no],DayType  ! When Daily Report Variables Requested
4,2,Cumulative Days of Simulation[],Month[]  ! When Monthly Report Variables Requested
5,1,Cumulative Days of Simulation[] ! When Run Period Report Variables Requested
6,1,Calendar Year of Simulation[] ! When Annual Report Variables Requested
502,1,EMS,Weighted Average Building Zone Air Temperature [C] !TimeStep
503,1,CORE_ZN,Zone Mean Air Temperature [C] !TimeStep
504,1,PERIMETER_ZN_1,Zone Mean Air Temperature [C] !TimeStep
505,1,PERIMETER_ZN_2,Zone Mean Air Temperature [C] !TimeStep
506,1,PERIMETER_ZN_3,Zone Mean Air Temperature [C] !TimeStep
507,1,PERIMETER_ZN_4,Zone Mean Air Temperature [C] !TimeStep
508,1,ATTIC,Zone Mean Air Temperature [C] !TimeStep
1216,1,HTGSETP_SCH,Schedule Value [] !TimeStep
1217,1,CLGSETP_SCH,Schedule Value [] !TimeStep
44,9,Electricity:Facility [J] !Monthly [Value,Min,Day,Hour,Minute,Max,Day,Hour,Minute]
1359,9,NaturalGas:Facility [J] !Monthly [Value,Min,Day,Hour,Minute,Max,Day,Hour,Minute]
1730,9,CO2:Facility [kg] !Monthly [Value,Min,Day,Hour,Minute,Max,Day,Hour,Minute]
1755,9,CO:Facility [kg] !Monthly [Value,Min,Day,Hour,Minute,Max,Day,Hour,Minute]
1780,9,CH4:Facility [kg] !Monthly [Value,Min,Day,Hour,Minute,Max,Day,Hour,Minute]
1805,9,NOx:Facility [kg] !Monthly [Value,Min,Day,Hour,Minute,Max,Day,Hour,Minute]
1830,9,N2O:Facility [kg] !Monthly [Value,Min,Day,Hour,Minute,Max,Day,Hour,Minute]
1855,9,SO2:Facility [kg] !Monthly [Value,Min,Day,Hour,Minute,Max,Day,Hour,Minute]
1880,9,PM:Facility [kg] !Monthly [Value,Min,Day,Hour,Minute,Max,Day,Hour,Minute]
1905,9,PM10:Facility [kg] !Monthly [Value,Min,Day,Hour,Minute,Max,Day,Hour,Minute]
1930,9,PM2.5:Facility [kg] !Monthly [Value,Min,Day,Hour,Minute,Max,Day,Hour,Minute]
1955,9,NH3:Facility [kg] !Monthly [Value,Min,Day,Hour,Minute,Max,Day,Hour,Minute]
1980,9,NMVOC:Facility [kg] !Monthly [Value,Min,Day,Hour,Minute,Max,Day,Hour,Minute]
2005,9,Hg:Facility [kg] !Monthly [Value,Min,Day,Hour,Minute,Max,Day,Hour,Minute]
2030,9,Pb:Facility [kg] !Monthly [Value,Min,Day,Hour,Minute,Max,Day,Hour,Minute]
2055,9,WaterEnvironmentalFactors:Facility [L] !Monthly [Value,Min,Day,Hour,Minute,Max,Day,Hour,Minute]
2080,9,Nuclear High:Facility [kg] !Monthly [Value,Min,Day,Hour,Minute,Max,Day,Hour,Minute]
2105,9,Nuclear Low:Facility [m3] !Monthly [Value,Min,Day,Hour,Minute,Max,Day,Hour,Minute]
2819,9,Carbon Equivalent:Facility [kg] !Monthly [Value,Min,Day,Hour,Minute,Max,Day,Hour,Minute]
End of Data Dictionary
1,CHICAGO ANN HTG 99.6% CONDNS DB,  41.98, -87.92,  -6.00, 201.00
2,1, 1,21, 0, 1, 0.00,10.00,WinterDesignDay
502,12.780736936109502
503,16.222465049085013
504,11.305997415053497
505,11.267724585182217
506,11.449576105702059
507,11.37026162174175
508,0.35251311785707096
1216,21.0
1217,30.0
2,1, 1,21, 0, 1,10.00,20.00,WinterDesignDay
502,13.347775726427031
503,16.58832365303172
504,11.950576341077014
505,11.935240031100466
506,12.079339634789344
507,12.04774583065352
508,0.34163559470926713
1216,21.0
1217,30.0
2,1, 1,21, 0, 1,20.00,30.00,WinterDesignDay
502,13.480161571824391
503,16.616552136140957
504,12.127218608707505
505,12.114316230563409
506,12.247594564477389
507,12.229989350815472
508,0.3319248947538927
1216,21.0
1217,30.0
2,1, 1,21, 0, 1,30.00,40.00,WinterDesignDay
502,11.640515392736365
503,15.391709625937875
504,10.062818528277543
505,9.954051462900336
506,10.222369047399642
507,10.035514232206568
508,0.325821249532433
1216,21.0
1217,30.0
2,1, 1,21, 0, 1,40.00,50.00,WinterDesignDay
502,12.738463850051039
503,16.195899034001215
504,11.258775984595905
505,11.217146789513022
506,11.402366239294954
507,11.318028577306713
508,0.3187728450237355
1216,21.0
1217,30.0
2,1, 1,21, 0, 1,50.00,60.00,WinterDesignDay
502,13.305523303184957
503,16.562461028086883
504,11.903029406330448
505,11.884256392973352
506,12.031795377002467
507,11.995623822866943
508,0.30779500769587453
1216,21.0
1217,30.0
2,1, 1,21, 0, 2, 0.00,10.00,WinterDesignDay
502,13.437245966952245
503,16.591037338102915
504,12.078520008097627
505,12.06225543333543
506,12.198874607159407
507,12.177057347980808
508,0.29801666794830206
1216,21.0
1217,30.0
2,1, 1,21, 0, 2,10.00,20.00,WinterDesignDay
502,11.597576171276092
503,15.364608380525945
504,10.014895552871582
505,9.90316779701078
506,10.174406140024686
507,9.98216987983708
508,0.2918983084131789
1216,21.0
1217,30.0
2,1, 1,21, 0, 2,20.00,30.00,WinterDesignDay
502,12.698075520539266
503,16.169678957821183
504,11.214007437858113
505,11.169254799587815
506,11.357615408535711
507,11.268375369059614
508,0.28483722742871004
1216,21.0
1217,30.0
2,1, 1,21, 0, 2,30.00,40.00,WinterDesignDay
502,13.265083983910383
503,16.536913052506605
504,11.857841199842325
505,11.83586414098674
506,11.98661189123954
507,11.946025802072814
508,0.2738505408744195
1216,21.0
1217,30.0
2,1, 1,21, 0, 2,40.00,50.00,WinterDesignDay
502,13.396104968538797
503,16.56584832899225
504,12.032117644055173
505,12.012723309291482
506,12.152445830625382
507,12.12661753400327
508,0.2640790577809118
1216,21.0
1217,30.0
2,1, 1,21, 0, 2,50.00,60.00,WinterDesignDay
502,11.556259128071346
503,15.337638278667413
504,9.969169094622476
505,9.854667919608103
506,10.128633758924499
507,9.931075494605548
508,0.2579836610834103
1216,21.0
1217,30.0
2,1, 1,21, 0, 3, 0.00,10.00,WinterDesignDay
502,12.659285988032604
503,16.143608739616
504,11.17138668265081
505,11.123699139851505
506,11.31501751232248
507,11.220945893123577
508,0.25095250998462526
1216,21.0
1217,30.0
2,1, 1,21, 0, 3,10.00,20.00,WinterDesignDay
502,13.226220968459755
503,16.511538618265682
504,11.814750264640589
505,11.789763252013676
506,11.943527219001322
507,11.898649372360191
508,0.24002020444713099
1216,21.0
1217,30.0
2,1, 1,21, 0, 3,20.00,30.00,WinterDesignDay
502,13.356538391667582
503,16.540879988851938
504,11.987784701524195
505,11.965459018732375
506,12.108081290153722
507,12.078408980734507
508,0.23030725340995806
1216,21.0
1217,30.0
2,1, 1,21, 0, 3,30.00,40.00,WinterDesignDay
502,11.516340265066276
503,15.310623120907275
504,9.925422943705623
505,9.808311688856953
506,10.084835574422765
507,9.881890875024759
508,0.22426109474523712
1216,21.0
1217,30.0
2,1, 1,21, 0, 3,40.00,50.00,WinterDesignDay
502,12.621887547813476
503,16.117537388775904
504,11.130704323146094
505,11.080244683343405
506,11.274363634150491
507,11.175438643357674
508,0.21728963781012414
1216,21.0
1217,30.0
2,1, 1,21, 0, 3,50.00,60.00,WinterDesignDay
502,13.188762780735619
503,16.48623818467903
504,11.773570564645876
505,11.745744059574687
506,11.902355970038567
507,11.853249282530374
508,0.20645597585928946
1216,21.0
1217,30.0
2,1, 1,21, 0, 4, 0.00,10.00,WinterDesignDay
502,13.318400810950719
503,16.51606763443207
504,11.945353427788426
505,11.920273251438664
506,12.065613859617399
507,12.03222481812382
508,0.19683781921053145
1216,21.0
1217,30.0
2,1, 1,21, 0, 4,10.00,20.00,WinterDesignDay
502,11.477585321761458
503,15.283316264889903
504,9.883497663628095
505,9.76392565366777
506,10.042852739242328
507,9.834095224928781
508,0.19085937903758285
1216,21.0
1217,30.0
2,1, 1,21, 0, 4,20.00,30.00,WinterDesignDay
502,12.585675356455472
503,16.091260554879334
504,11.091804303691784
505,11.038719216393648
506,11.235499110108947
507,11.131448217591416
508,0.18396857182061166
1216,21.0
1217,30.0
2,1, 1,21, 0, 4,30.00,40.00,WinterDesignDay
502,13.152551413259728
503,16.460888755148716
504,11.734158451590837
505,11.70364761096225
506,11.862955840282037
507,11.809539937765443
508,0.17326476025651766
1216,21.0
1217,30.0
2,1, 1,21, 0, 4,40.00,50.00,WinterDesignDay
502,13.281566564537512
503,16.49134695345063
504,11.904689447443456
505,11.87701763022032
506,12.024910219570517
507,11.98785327186346
508,0.16376697066147328
1216,21.0
1217,30.0
2,1, 1,21, 0, 4,50.00,60.00,WinterDesignDay
502,11.439664968116189
503,15.254968119686492
504,9.843264689891166
505,9.72137282223518
506,10.002557668442373
507,9.787422898681193
508,0.15786921815588542
1216,21.0
1217,30.0
2,1, 1,21, 0, 5, 0.00,10.00,WinterDesignDay
502,12.550363698726134
503,16.064162570691806
504,11.054559473006348
505,10.998985258226048
506,11.19829878122072
507,11.088736439904181
508,0.15107375679447463
1216,21.0
1217,30.0
2,1, 1,21, 0, 5,10.00,20.00,WinterDesignDay
502,13.11738623427176
503,16.435132861790514
504,11.696393294284816
505,11.663343165903257
506,11.825208019620948
507,11.767326787437522
508,0.1405216643663931
1216,21.0
1217,30.0
2,1, 1,21, 0, 5,20.00,30.00,WinterDesignDay
502,13.245898764509677
503,16.466556841357306
504,11.865676437280491
505,11.83556645808706
506,11.985855385333954
507,11.945128524766114
508,0.13116205012550353
1216,21.0
1217,30.0
2,1, 1,21, 0, 5,30.00,40.00,WinterDesignDay
502,11.406336188730318
503,15.235691593543761
504,9.804607981257025
505,9.680531747202512
506,9.963835576461376
507,9.748431096434029
508,0.12535377630799455
1216,21.0
1217,30.0
2,1, 1,21, 0, 5,40.00,50.00,WinterDesignDay
502,12.518960799203446
503,16.044791679190528
504,11.018865092823907
505,10.960927365903737
506,11.162660254366909
507,11.051606976657423
508,0.11866357393632752
1216,21.0
1217,30.0
2,1, 1,21, 0, 5,50.00,60.00,WinterDesignDay
502,13.084976765073138
503,16.4139593853819
504,11.660200749169302
505,11.624733394812873
506,11.789039937600872
507,11.728845034833116
508,0.10827821837823115
1216,21.0
1217,30.0
2,1, 1,21, 0, 6, 0.00,10.00,WinterDesignDay
502,13.21211967209259
503,16.443802444456217
504,11.828274440357916
505,11.795842884397512
506,11.948410461924285
507,11.905064785346603
508,0.09907031845652646
1216,21.0
1217,30.0
2,1, 1,21, 0, 6,10.00,20.00,WinterDesignDay
502,11.374696047146983
503,15.218582501174883
504,9.767575312477733
505,9.641415164747258
506,9.926734426107494
507,9.71025037444125
508,0.09336087335320407
1216,21.0
1217,30.0
2,1, 1,21, 0, 6,20.00,30.00,WinterDesignDay
502,12.489494382097961
503,16.028273637024824
504,10.984778385826136
505,10.924555288636693
506,11.128644618760742
507,11.015709822567997
508,0.0867875001349315
1216,21.0
1217,30.0
2,1, 1,21, 0, 6,30.00,40.00,WinterDesignDay
502,13.054555913153598
503,16.395712498247665
504,11.625598080479813
505,11.587798688324595
506,11.75447235037707
507,11.691906093880757
508,0.07658718947562622
1216,21.0
1217,30.0
2,1, 1,21, 0, 6,40.00,50.00,WinterDesignDay
502,13.18028150464191
503,16.423754007400085
504,11.792449980449641
505,11.757795754825041
506,11.91254394644388
507,11.866728900222373
508,0.06754708733054043
1216,21.0
1217,30.0
2,1, 1,21, 0, 6,50.00,60.00,WinterDesignDay
502,11.343557818026422
503,15.199456189419951
504,9.732107218257278
505,9.603954069746425
506,9.891196851731971
507,9.67343882211705
508,0.061945517188481625
1216,21.0
1217,30.0
2,1, 1,21, 0, 7, 0.00,10.00,WinterDesignDay
502,13.007261753092951
503,16.018266481509382
504,11.711041202216729
505,11.670686452787292
506,11.863380232894059
507,11.761525185709482
508,0.05570638480970736
1216,21.0
1217,30.0
2,1, 1,21, 0, 7,10.00,20.00,WinterDesignDay
502,13.460338066943155
503,16.093943820156042
504,12.322087307629982
505,12.286677822828223
506,12.459063350473398
507,12.384229361167623
508,0.04856530530294001
1216,21.0
1217,30.0
2,1, 1,21, 0, 7,20.00,30.00,WinterDesignDay
502,13.721872756224156
503,16.15553926748214
504,12.659469129911308
505,12.643430430489422
506,12.792555254434415
507,12.745999116187637
508,0.04216598311329097
1216,21.0
1217,30.0
2,1, 1,21, 0, 7,30.00,40.00,WinterDesignDay
502,14.143623142787249
503,16.30682959895937
504,13.190754375285819
505,13.181967881068328
506,13.319876315097705
507,13.289783071713309
508,0.030775075177132377
1216,21.0
1217,30.0
2,1, 1,21, 0, 7,40.00,50.00,WinterDesignDay
502,14.341111000487272
503,16.38773120873826
504,13.436145383712804
505,13.428579843603876
506,13.563265414528312
507,13.539274425797352
508,0.021828841035123527
1216,21.0
1217,30.0
2,1, 1,21, 0, 7,50.00,60.00,WinterDesignDay
502,14.399040651597447
503,16.41329427819615
504,13.50557041453436
505,13.503127864183815
506,13.631728890715163
507,13.615425016384613
508,0.015712218168927598
1216,21.0
1217,30.0
2,1, 1,21, 0, 8, 0.00,10.00,WinterDesignDay
502,14.437118694239865
503,16.428493214884785
504,13.549889593559993
505,13.55589509825437
506,13.675617006395534
507,13.669375799657992
508,0.01117711057473636
1216,21.0
1217,30.0
2,1, 1,21, 0, 8,10.00,20.00,WinterDesignDay
502,14.486139774190976
503,16.450753998834177
504,13.606882337240785
505,13.620793532289749
506,13.73258423610717
507,13.735194126499566
508,0.007645413691567426
1216,21.0
1217,30.0
2,1, 1,21, 0, 8,20.00,30.00,WinterDesignDay
502,14.536330488895766
503,16.475769028203693
504,13.66497777268654
505,13.685172941895619
506,13.790799551723952
507,13.80032759231512
508,0.005062070600120245
1216,21.0
1217,30.0
2,1, 1,21, 0, 8,30.00,40.00,WinterDesignDay
502,14.580147477026454
503,16.498415090045572
504,13.715420183588847
505,13.74095629065198
506,13.8413216965758
507,13.856784932283096
508,0.0036030885984667292
1216,21.0
1217,30.0
2,1, 1,21, 0, 8,40.00,50.00,WinterDesignDay
502,14.617762161631356
503,16.51788172294109
504,13.758592164117081
505,13.789050472474736
506,13.884521402549751
507,13.905493589440969
508,0.003200847604152482
1216,21.0
1217,30.0
2,1, 1,21, 0, 8,50.00,60.00,WinterDesignDay
502,14.651239401395472
503,16.535218584525058
504,13.796862162824478
505,13.83207420378781
506,13.92284535296649
507,13.94906667594083
508,0.0038175323893884614
1216,21.0
1217,30.0
2,1, 1,21, 0, 9, 0.00,10.00,WinterDesignDay
502,14.681854792034976
503,16.551221370881404
504,13.831874555791613
505,13.871227613945056
506,13.957921136934765
507,13.988707389867319
508,0.005272996265381483
1216,21.0
1217,30.0
2,1, 1,21, 0, 9,10.00,20.00,WinterDesignDay
502,14.710449495488609
503,16.567187164823604
504,13.864243454346761
505,13.90723795965711
506,13.990342853155127
507,14.025156181432264
508,0.007536031105148714
1216,21.0
1217,30.0
2,1, 1,21, 0, 9,20.00,30.00,WinterDesignDay
502,14.736953372529367
503,16.582016260902744
504,13.894259645350841
505,13.940567494242243
506,14.020399703051288
507,14.058885822764234
508,0.010469410829288135
1216,21.0
1217,30.0
2,1, 1,21, 0, 9,30.00,40.00,WinterDesignDay
502,14.761507180359144
503,16.5953890904416
504,13.922227949279765
505,13.971584613039306
506,14.048401544275414
507,14.090271450078669
508,0.014062758984953438
1216,21.0
1217,30.0
2,1, 1,21, 0, 9,40.00,50.00,WinterDesignDay
502,14.784421591210245
503,16.607589319244894
504,13.948462001971794
505,14.000619678958554
506,14.074665487200967
507,14.119648251226938
508,0.018197690923442384
1216,21.0
1217,30.0
2,1, 1,21, 0, 9,50.00,60.00,WinterDesignDay
502,14.805993701329019
503,16.61896340742891
504,13.973229990897028
505,14.027960668760464
506,14.099460860760479
507,14.147308210641217
508,0.022866554999957822
1216,21.0
1217,30.0
2,1, 1,21, 0,10, 0.00,10.00,WinterDesignDay
502,14.826438340613999
503,16.629702032989485
504,13.996745842840149
505,14.053848861079887
506,14.123001829574664
507,14.173496060824498
508,0.027967932780640407
1216,21.0
1217,30.0
2,1, 1,21, 0,10,10.00,20.00,WinterDesignDay
502,14.846372866685211
503,16.64146884825135
504,14.019183126938717
505,14.07848476236126
506,14.145462155316412
507,14.19841522317428
508,0.03349861487738925
1216,21.0
1217,30.0
2,1, 1,21, 0,10,20.00,30.00,WinterDesignDay
502,14.865401745350775
503,16.652539831059652
504,14.040687241181825
505,14.102036618444666
506,14.166987526876532
507,14.22223636196409
508,0.039373976484363776
1216,21.0
1217,30.0
2,1, 1,21, 0,10,30.00,40.00,WinterDesignDay
502,14.883463026561103
503,16.662386315976285
504,14.061381927713278
505,14.124647112411772
506,14.187701997327663
507,14.245104165671647
508,0.045593747118180754
1216,21.0
1217,30.0
2,1, 1,21, 0,10,40.00,50.00,WinterDesignDay
502,14.900757319431687
503,16.671426935474784
504,14.08137105595795
505,14.146436455345299
506,14.207709707220856
507,14.267140513146353
508,0.05208751162085357
1216,21.0
1217,30.0
2,1, 1,21, 0,10,50.00,60.00,WinterDesignDay
502,14.917472023068608
503,16.68008122965044
504,14.100740161977036
505,14.167504763532769
506,14.227096421134547
507,14.288446909202062
508,0.0588569203910823
1216,21.0
1217,30.0
2,1, 1,21, 0,11, 0.00,10.00,WinterDesignDay
502,14.933597662418459
503,16.68843770122803
504,14.119439170954191
505,14.18780354512671
506,14.24580979785346
507,14.308975720373784
508,0.06575473868304135
1216,21.0
1217,30.0
2,1, 1,21, 0,11,10.00,20.00,WinterDesignDay
502,14.9490924590228
503,16.69601683965048
504,14.137600188457574
505,14.207482713898434
506,14.263983737703445
507,14.328877606005923
508,0.07282988258109015
1216,21.0
1217,30.0
2,1, 1,21, 0,11,20.00,30.00,WinterDesignDay
502,14.964246196721033
503,16.703464931120873
504,14.155358552732887
505,14.226693865156449
506,14.281755574335149
507,14.34830511656934
508,0.08010289380371463
1216,21.0
1217,30.0
2,1, 1,21, 0,11,30.00,40.00,WinterDesignDay
502,14.979161660269355
503,16.71101159716106
504,14.17276119803482
505,14.245492247659769
506,14.299172423494932
507,14.367314513779398
508,0.0875820342801827
1216,21.0
1217,30.0
2,1, 1,21, 0,11,40.00,50.00,WinterDesignDay
502,14.993823314543892
503,16.71855880897762
504,14.189824483742282
505,14.263900251994079
506,14.316250214532701
507,14.38592897444044
508,0.09521176550892849
1216,21.0
1217,30.0
2,1, 1,21, 0,11,50.00,60.00,WinterDesignDay
502,15.008216726254373
503,16.726002751079214
504,14.206568819903286
505,14.281943965176156
506,14.333009207513964
507,14.40417508686828
508,0.1029813946374284
1216,21.0
1217,30.0
2,1, 1,21, 0,12, 0.00,10.00,WinterDesignDay
502,15.02235534004939
503,16.733324659750608
504,14.223019046264945
505,14.29965316028784
506,14.349474365152025
507,14.422082964632512
508,0.11085616731326862
1216,21.0
1217,30.0
2,1, 1,21, 0,12,10.00,20.00,WinterDesignDay
502,15.036569053146563
503,16.741592091658557
504,14.239198060616461
505,14.317054801121854
506,14.365668737157193
507,14.439679862333398
508,0.11883887696906854
1216,21.0
1217,30.0
2,1, 1,21, 0,12,20.00,30.00,WinterDesignDay
502,15.050531693484858
503,16.74964135826396
504,14.255125073825859
505,14.334171488870096
506,14.381611623587393
507,14.45698865102555
508,0.12690406839521975
1216,21.0
1217,30.0
2,1, 1,21, 0,12,30.00,40.00,WinterDesignDay
502,15.064145479379256
503,16.757094947369627
504,14.270817019248446
505,14.351022921053538
506,14.397320011274774
507,14.474029267950298
508,0.13505343712142096
1216,21.0
1217,30.0
2,1, 1,21, 0,12,40.00,50.00,WinterDesignDay
502,15.077493526574225
503,16.76419907910633
504,14.28628854379215
505,14.367626145633702
506,14.412808590595173
507,14.490818963018247
508,0.14326493844849172
1216,21.0
1217,30.0
2,1, 1,21, 0,12,50.00,60.00,WinterDesignDay
502,15.090657607181479
503,16.771202358968758
504,14.301551453327512
505,14.383995267150326
506,14.428089204758868
507,14.507372008780234
508,0.15154013547786793
1216,21.0
1217,30.0
2,1, 1,21, 0,13, 0.00,10.00,WinterDesignDay
502,15.103667428199591
503,16.778181168960096
504,14.316615287775111
505,14.400141993921226
506,14.443171426286904
507,14.523700255806844
508,0.15986106629743552
1216,21.0
1217,30.0
2,1, 1,21, 0,13,10.00,20.00,WinterDesignDay
502,15.116297642291938
503,16.784343930277974
504,14.331488380001119
505,14.416076543084577
506,14.458063618562978
507,14.539814043910726
508,0.16822930729386026
1216,21.0
1217,30.0
2,1, 1,21, 0,13,20.00,30.00,WinterDesignDay
502,15.128810018313311
503,16.79056512533929
504,14.346178222313878
505,14.43180799395162
506,14.472773301200073
507,14.555722558473981
508,0.17662991567743225
1216,21.0
1217,30.0
2,1, 1,21, 0,13,30.00,40.00,WinterDesignDay
502,15.141295114497375
503,16.79713759356396
504,14.360691068612036
505,14.447344047122709
506,14.487306747793683
507,14.57143359189567
508,0.18506413112931513
1216,21.0
1217,30.0
2,1, 1,21, 0,13,40.00,50.00,WinterDesignDay
502,15.15370702868456
503,16.803889706291333
504,14.375032587624112
505,14.462691603093889
506,14.501669642286352
507,14.586954126462613
508,0.19351945382608465
1216,21.0
1217,30.0
2,1, 1,21, 0,13,50.00,60.00,WinterDesignDay
502,15.165998797500396
503,16.810646070627968
504,14.38920863295743
505,14.477857410830394
506,14.515867851929292
507,14.602290985837866
508,0.20199679658874442
1216,21.0
1217,30.0
2,1, 1,21, 0,14, 0.00,10.00,WinterDesignDay
502,15.178160348765035
503,16.817357538672567
504,14.4032250558151
505,14.492847960385081
506,14.529907237409075
507,14.61745072847315
508,0.2104857663122946
1216,21.0
1217,30.0
2,1, 1,21, 0,14,10.00,20.00,WinterDesignDay
502,15.190123369497933
503,16.823777491606112
504,14.417087142730612
505,14.507669088660707
506,14.543793087803717
507,14.632439253637374
508,0.2189870815076854
1216,21.0
1217,30.0
2,1, 1,21, 0,14,20.00,30.00,WinterDesignDay
502,15.20198201994974
503,16.830216254483535
504,14.430799345146621
505,14.52232580919519
506,14.557529851180554
507,14.647261631247252
508,0.2274922576529102
1216,21.0
1217,30.0
2,1, 1,21, 0,14,30.00,40.00,WinterDesignDay
502,15.21376809643518
503,16.83677310351563
504,14.44436529300242
505,14.536822350836461
506,14.571121150893791
507,14.661922140852496
508,0.23600185952583946
1216,21.0
1217,30.0
2,1, 1,21, 0,14,40.00,50.00,WinterDesignDay
502,15.225465922309922
503,16.843386085278855
504,14.457788255503456
505,14.551162535055589
506,14.584570249816137
507,14.676424650309253
508,0.2445089458435572
1216,21.0
1217,30.0
2,1, 1,21, 0,14,50.00,60.00,WinterDesignDay
502,15.23705993009466
503,16.849993705596688
504,14.471071509834427
505,14.565350074474596
506,14.59788041978885
507,14.690772915640094
508,0.25301382401869005
1216,21.0
1217,30.0
2,1, 1,21, 0,15, 0.00,10.00,WinterDesignDay
502,15.248547509850454
503,16.85657892065463
504,14.484218288458935
505,14.579388543772158
506,14.611054886913559
507,14.704970552646001
508,0.2615108040399661
1216,21.0
1217,30.0
2,1, 1,21, 0,15,10.00,20.00,WinterDesignDay
502,15.25962802918126
503,16.86210740432522
504,14.497231581429032
505,14.593281241857357
506,14.624096632272343
507,14.71902089937359
508,0.26999997242642365
1216,21.0
1217,30.0
2,1, 1,21, 0,15,20.00,30.00,WinterDesignDay
502,15.270650231156557
503,16.86776410936155
504,14.510113812131918
505,14.60703095265697
506,14.637008067225132
507,14.732926775792441
508,0.27847674860942684
1216,21.0
1217,30.0
2,1, 1,21, 0,15,30.00,40.00,WinterDesignDay
502,15.281728080201008
503,16.8739345530067
504,14.522866323787918
505,14.62063955657211
506,14.649790519028363
507,14.746690094703373
508,0.28694101691597607
1216,21.0
1217,30.0
2,1, 1,21, 0,15,40.00,50.00,WinterDesignDay
502,15.292792241398246
503,16.8803782759261
504,14.535490440686544
505,14.634108869166171
506,14.662445298785354
507,14.760312702944226
508,0.2953890537513676
1216,21.0
1217,30.0
2,1, 1,21, 0,15,50.00,60.00,WinterDesignDay
502,15.303773756404546
503,16.886853868790503
504,14.547988515950761
505,14.647441452847797
506,14.674974751991707
507,14.773797195138831
508,0.3038204163439449
1216,21.0
1217,30.0
2,1, 1,21, 0,16, 0.00,10.00,WinterDesignDay
502,15.314654499391821
503,16.89329210361587
504,14.560363574381755
505,14.660640336145
506,14.687381895680288
507,14.787146633151027
508,0.312232088856471
1216,21.0
1217,30.0
2,1, 1,21, 0,16,10.00,20.00,WinterDesignDay
502,15.32528914594968
503,16.899189781261786
504,14.57261844381541
505,14.673708352775469
506,14.699669544543722
507,14.80036388439123
508,0.32062347841789984
1216,21.0
1217,30.0
2,1, 1,21, 0,16,20.00,30.00,WinterDesignDay
502,15.335856886760967
503,16.905153633674793
504,14.584755266854897
505,14.686647779195829
506,14.711839823249473
507,14.813451257720406
508,0.32899237958523175
1216,21.0
1217,30.0
2,1, 1,21, 0,16,30.00,40.00,WinterDesignDay
502,15.346415307860644
503,16.911376893601936
504,14.596775362274146
505,14.699460233552966
506,14.723894030815014
507,14.826410401375327
508,0.3373381331158239
1216,21.0
1217,30.0
2,1, 1,21, 0,16,40.00,50.00,WinterDesignDay
502,15.356928884726772
503,16.91773500460818
504,14.608679950512286
505,14.712147240111356
506,14.735833371363134
507,14.839242868421064
508,0.3456591392247045
1216,21.0
1217,30.0
2,1, 1,21, 0,16,50.00,60.00,WinterDesignDay
502,15.367362750850763
503,16.92410454245659
504,14.620470764033145
505,14.724710696158095
506,14.747659565564597
507,14.851950585036581
508,0.3539545240658677
1216,21.0
1217,30.0
2,1, 1,21, 0,17, 0.00,10.00,WinterDesignDay
502,15.377708028117915
503,16.930450125595986
504,14.632149872265126
505,14.737152731843882
506,14.75937467170513
507,14.864535710937883
508,0.36222314234106157
1216,21.0
1217,30.0
2,1, 1,21, 0,17,10.00,20.00,WinterDesignDay
502,15.388044141589864
503,16.93703823796157
504,14.643719235056317
505,14.74947536988783
506,14.770980635912533
507,14.877000298893346
508,0.3704639848484379
1216,21.0
1217,30.0
2,1, 1,21, 0,17,20.00,30.00,WinterDesignDay
502,15.39828857751457
503,16.943582773400003
504,14.65518058563902
505,14.761680444372221
506,14.782479175704214
507,14.889346213223725
508,0.37867640301125643
1216,21.0
1217,30.0
2,1, 1,21, 0,17,30.00,40.00,WinterDesignDay
502,15.408414598970916
503,16.949988148938882
504,14.666535653441061
505,14.773769777023885
506,14.793872005410055
507,14.901575305759659
508,0.3868593126064892
1216,21.0
1217,30.0
2,1, 1,21, 0,17,40.00,50.00,WinterDesignDay
502,15.418440071483865
503,16.95631141715386
504,14.677786039881251
505,14.785745077191875
506,14.80516071171382
507,14.913689315362069
508,0.39501248674682127
1216,21.0
1217,30.0
2,1, 1,21, 0,17,50.00,60.00,WinterDesignDay
502,15.428382932932752
503,16.9626106075846
504,14.688933022365363
505,14.797607789702123
506,14.816346556830398
507,14.925689715620681
508,0.40313475226639156
1216,21.0
1217,30.0
2,1, 1,21, 0,18, 0.00,10.00,WinterDesignDay
502,15.43824877365187
503,16.96890208556385
504,14.699977652783963
505,14.809359173593561
506,14.827430577766867
507,14.937577793738031
508,0.41122621835206297
1216,21.0
1217,30.0
2,1, 1,21, 0,18,10.00,20.00,WinterDesignDay
502,15.44750728790579
503,16.973371886768703
504,14.71092097270542
505,14.821000468352457
506,14.838413802457866
507,14.949354817075434
508,0.41928558445222874
1216,21.0
1217,30.0
2,1, 1,21, 0,18,20.00,30.00,WinterDesignDay
502,15.456760177698065
503,16.978073268019934
504,14.721763657032476
505,14.832532610458593
506,14.849296891813337
507,14.961021747996414
508,0.4273132037770506
1216,21.0
1217,30.0
2,1, 1,21, 0,18,30.00,40.00,WinterDesignDay
502,15.46620258215131
503,16.983673988289553
504,14.732504979532441
505,14.84395542965714
506,14.860079100722974
507,14.972578439581794
508,0.4353076161887613
1216,21.0
1217,30.0
2,1, 1,21, 0,18,40.00,50.00,WinterDesignDay
502,15.475711935638941
503,16.989756100615946
504,14.743144475555063
505,14.855268955550892
506,14.870759950396096
507,14.984024944916438
508,0.44326927865242993
1216,21.0
1217,30.0
2,1, 1,21, 0,18,50.00,60.00,WinterDesignDay
502,15.485166764878889
503,16.99590097682657
504,14.753683674530523
505,14.866474752307681
506,14.881340965671779
507,14.995362854853502
508,0.4511964145451104
1216,21.0
1217,30.0
2,1, 1,21, 0,19, 0.00,10.00,WinterDesignDay
502,14.905880351910948
503,17.00045972394618
504,13.94666026136325
505,14.028810048082157
506,14.067963676465023
507,14.154657083483153
508,0.4565758438222567
1216,21.0
1217,30.0
2,1, 1,21, 0,19,10.00,20.00,WinterDesignDay
502,14.69807145745609
503,17.004342215554654
504,13.650920533108415
505,13.734292411080473
506,13.771434556098491
507,13.860598212428638
508,0.46281094244827325
1216,21.0
1217,30.0
2,1, 1,21, 0,19,20.00,30.00,WinterDesignDay
502,14.508709375604484
503,17.007409508297105
504,13.381445764919915
505,13.46655081217059
506,13.500885277830815
507,13.593612526092995
508,0.47223916730111304
1216,21.0
1217,30.0
2,1, 1,21, 0,19,30.00,40.00,WinterDesignDay
502,12.562311272169335
503,15.819193645335762
504,11.154540642841555
505,11.12533472627806
506,11.315108089859473
507,11.232425987770348
508,0.4790678988426542
1216,21.0
1217,30.0
2,1, 1,21, 0,19,40.00,50.00,WinterDesignDay
502,13.593611665249298
503,16.627399920851214
504,12.25292957192252
505,12.297364723828172
506,12.398954136447076
507,12.417427519093557
508,0.48567030951211776
1216,21.0
1217,30.0
2,1, 1,21, 0,19,50.00,60.00,WinterDesignDay
502,13.715625872152277
503,16.656145931119053
504,12.413849163668026
505,12.46790861965722
506,12.54771168631849
507,12.587649459928445
508,0.49159319475871954
1216,21.0
1217,30.0
2,1, 1,21, 0,20, 0.00,10.00,WinterDesignDay
502,13.852068503332946
503,16.706201473243862
504,12.586801119140748
505,12.64700066179084
506,12.709996048262482
507,12.768437342791307
508,0.4984268830209899
1216,21.0
1217,30.0
2,1, 1,21, 0,20,10.00,20.00,WinterDesignDay
502,12.118474329485345
503,15.610453234829645
504,10.621688251552904
505,10.578082713851218
506,10.782859334603678
507,10.668307008042982
508,0.5017852798348355
1216,21.0
1217,30.0
2,1, 1,21, 0,20,20.00,30.00,WinterDesignDay
502,13.22594581844909
503,16.444836356170427
504,11.819028917330527
505,11.842159914603904
506,11.96423387794043
507,11.950372460205298
508,0.5042073066978012
1216,21.0
1217,30.0
2,1, 1,21, 0,20,30.00,40.00,WinterDesignDay
502,13.809971177412477
503,16.84596728654224
504,12.475572522698618
505,12.51515828709331
506,12.60560451176692
507,12.633218118698084
508,0.5069796404550732
1216,21.0
1217,30.0
2,1, 1,21, 0,20,40.00,50.00,WinterDesignDay
502,13.93914674330653
503,16.879028381809636
504,12.647981046762641
505,12.684181367802925
506,12.769263222505723
507,12.805270550678953
508,0.5077541838001011
1216,21.0
1217,30.0
2,1, 1,21, 0,20,50.00,60.00,WinterDesignDay
502,12.086010283530259
503,15.65569775885583
504,10.566486676505114
505,10.501399948059577
506,10.726978067998935
507,10.58506306458136
508,0.5063812477987883
1216,21.0
1217,30.0
2,1, 1,21, 0,21, 0.00,10.00,WinterDesignDay
502,13.160040100015566
503,16.4513208372546
504,11.73227971294413
505,11.733821065888907
506,11.876756940324206
507,11.837423178744146
508,0.504605470099992